# vtk DataFile Version 2.0
A simple 2D unstructured grid without cavity
ASCII

DATASET UNSTRUCTURED_GRID
POINTS 24 float
1 5 0
2 6 0
2 5 0
2 4 0
2 3 0
3 8 0
3 7 0
3 6 0
3 4 0
3 2 0
4 6 0
4 5 0
5 5 0
5 3 0
5 1 0
6 4 0
6 2 0
7 6 0
7 5 0
7 4 0
8 4 0
9 5 0
9 3 0
10 4 0

CELLS 31 124
3 0 1 2
3 0 2 3
3 1 5 6
3 1 6 7
3 1 7 11
3 1 11 2
3 2 11 8
3 2 8 3
3 3 8 4
3 4 8 9
3 5 10 6
3 6 10 7
3 7 10 11
3 8 11 13
3 8 13 9
3 9 13 14
3 10 12 11
3 11 12 13
3 12 17 18
3 12 18 15
3 12 15 13
3 13 15 16
3 13 16 14
3 15 18 19
3 15 19 16
3 17 21 18
3 18 21 20
3 18 20 19
3 19 20 22
3 20 21 23
3 20 23 22

CELL_TYPES 31
5
5
5
5
5
5
5
5
5
5
5
5
5
5
5
5
5
5
5
5
5
5
5
5
5
5
5
5
5
5
5

POINT_DATA 24
VECTORS velocity float
0 0 0
1 0 0
0 1 0
0 0 0
0 0 0
0 -2 0
2 0 0
2 0 0
0 0 0
0 2 0
-1 0 0
0 -2 0
3 0 0
3 0 0
0 3 0
0 3 0
-2 0 0
-1 0 0
0 0 0
1 0 0
0 2 0
0 1 0
0 0 0
2 1 0
