# vtk DataFile Version 3.0
vtk output
ASCII
DATASET POLYDATA
POINTS 15 float
2 6 0 1 5 0 2 4 0 
2 3 0 3 2 0 5 1 0 
6 2 0 7 4 0 9 3 0 
10 4 0 9 5 0 7 6 0 
5 5 0 4 6 0 3 8 0 

VERTICES 15 30
1 0 
1 1 
1 2 
1 3 
1 4 
1 5 
1 6 
1 7 
1 8 
1 9 
1 10 
1 11 
1 12 
1 13 
1 14 

POLYGONS 1 16
15 0 1 2 3 4 5 6 7 8 9 10 11 12 13 14 

POINT_DATA 15
NORMALS NormalVectors double
0.811242 -0.58471 0 1 0 0 0.92388 0.382683 0 
0.92388 0.382683 0 0.58471 0.811242 0 -0.160182 0.987087 0 
-0.811242 0.58471 0 -0.316228 0.948683 0 -0.160182 0.987087 0 
-1 7.85046e-17 0 -0.58471 -0.811242 0 0 -1 0 
-0.160182 -0.987087 0 -0.811242 -0.58471 0 0 -1 0 

FIELD FieldData 1
VelocityBoundary 1 15 unsigned_int
0 1 1 1 0 0 0 0 1 
0 0 0 0 0 0 
