# vtk DataFile Version 3.0
vtk output
ASCII
DATASET POLYDATA
POINTS 55 float
4 14 0 1 12 0 2 11 0 
1 10 0 1 9 0 2 8 0 
3 6 0 2 5 0 4 2 0 
5 2 0 6 4 0 7 2 0 
8 3 0 9 2 0 10 2.5 0 
11 3 0 13 2 0 15 5 0 
13 5 0 14 6 0 14 8 0 
16 11 0 13 14 0 12 13 0 
13 12 0 15 11 0 13 10 0 
14 11 0 12 12 0 11 13 0 
10 12 0 10 11 0 9 11 0 
8 12 0 3 13 0 2 12 0 
3 11 0 2 10 0 5 12 0 
6 11 0 8 11 0 5 13 0 
5 8 0 4 7 0 6 5 0 
8 7 0 7 8 0 7 9 0 
6 7 0 10 7 0 10 9 0 
11 8 0 12 9 0 12 7 0 
11 6 0 
VERTICES 55 110
1 0 
1 1 
1 2 
1 3 
1 4 
1 5 
1 6 
1 7 
1 8 
1 9 
1 10 
1 11 
1 12 
1 13 
1 14 
1 15 
1 16 
1 17 
1 18 
1 19 
1 20 
1 21 
1 22 
1 23 
1 24 
1 25 
1 26 
1 27 
1 28 
1 29 
1 30 
1 31 
1 32 
1 33 
1 34 
1 35 
1 36 
1 37 
1 38 
1 39 
1 40 
1 41 
1 42 
1 43 
1 44 
1 45 
1 46 
1 47 
1 48 
1 49 
1 50 
1 51 
1 52 
1 53 
1 54 

POLYGONS 4 59
34 0 1 2 3 4 5 6 7 8 9 10 11 12 13 14 15 16 17 18 19 20 21 22 23 24 25 26 27 28 29 30 31 32 33 
8 34 35 36 37 38 39 40 41 
7 42 43 44 45 46 47 48 
6 49 50 51 52 53 54 

POINT_DATA 55
NORMALS NormalVectors double
0.0621374 -0.998068 0 0.995133 -0.0985376 0 1 0 0 
0.92388 -0.382683 0 0.92388 0.382683 0 0.811242 0.58471 0 
0.987087 -0.160182 0 0.995133 -0.0985376 0 0.471858 0.881675 0 
-0.525731 0.850651 0 -3.7238e-16 1 0 0.160182 0.987087 0 
7.85046e-17 1 0 0.160182 0.987087 0 -0.447214 0.894427 0 
-3.10317e-17 1 0 -0.256668 0.9665 0 -0.881675 -0.471858 0 
-0.92388 -0.382683 0 -0.92388 0.382683 0 -0.957092 0.289784 0 
-0.995133 -0.0985376 0 0 -1 0 1 0 0 
0.58471 0.811242 0 1 0 0 -0.811242 -0.58471 0 
-0.987087 -0.160182 0 -0.58471 -0.811242 0 0 -1 0 
0.92388 -0.382683 0 0.707107 -0.707107 0 -0.382683 -0.92388 0 
-0.58471 -0.811242 0 -0.382683 0.92388 0 -1 0 0 
-1 0 0 -0.773342 -0.633989 0 -0.0985376 -0.995133 0 
-0.382683 -0.92388 0 0.957092 -0.289784 0 0.289784 0.957092 0 
-7.85046e-17 1 0 -1 0 0 -7.85046e-17 -1 0 
1 0 0 0.92388 0.382683 0 0.229753 0.973249 0 
-0.160182 0.987087 0 -0.92388 -0.382683 0 -0.382683 0.92388 0 
0 1 0 0.382683 0.92388 0 0.92388 -0.382683 0 
-7.85046e-17 -1 0 
FIELD FieldData 1
VelocityBoundary 1 55 unsigned_int
0 1 1 1 0 0 0 0 0 
0 0 0 0 0 0 0 1 1 
1 0 0 0 0 0 0 0 0 
0 0 0 0 0 0 0 0 0 
0 0 1 1 0 0 0 0 0 
0 0 0 0 0 1 1 0 1 
0 
