# vtk DataFile Version 2.0
A simple unstructuredGrid with cavity
ASCII

DATASET UNSTRUCTURED_GRID
POINTS 62 float
1 12 0
1 10 0
1 9 0
2 12 0
2 11 0
2 10 0
2 8 0
2 5 0
3 13 0
3 11 0
3 6 0
3 4 0
4 14 0
4 11 0
4 10 0
4 7 0
4 6 0
4 4 0
4 2 0
5 13 0
5 12 0
5 8 0
5 2 0
6 11 0
6 7 0
6 5 0
6 4 0
7 9 0
7 8 0
7 3 0
7 2 0
8 12 0
8 11 0
8 7 0
8 5 0
8 3 0
9 11 0
9 2 0
10 12 0
10 11 0
10 9 0
10 7 0
10 2.5 0
11 13 0
11 8 0
11 6 0
11 3 0
12 13 0
12 12 0
12 9 0
12 7 0
13 14 0
13 12 0
13 10 0
13 5 0
13 2 0
14 11 0
14 8 0
14 6 0
15 11 0
15 5 0
16 11 0

CELLS 73 292
3 0 8 12
3 0 3 8
3 0 3 4
3 1 4 5
3 1 5 2
3 2 5 14
3 2 14 6
3 3 4 9
3 4 9 5
3 5 13 20
3 5 13 14
3 6 14 15
3 6 15 16
3 6 10 16
3 7 10 11
3 7 11 18
3 8 12 19
3 10 16 17
3 10 11 17
3 11 17 18
3 12 19 31
3 20 13 23
3 13 23 14
3 14 23 32
3 14 32 21
3 14 15 21
3 15 16 25
3 16 17 25
3 17 25 26
3 17 22 26
3 17 18 22
3 19 31 32
3 21 27 32
3 21 24 27
3 25 33 41
3 25 26 41
3 26 41 34
3 26 34 35
3 26 35 29
3 26 29 30
3 27 32 40
3 27 28 40
3 28 40 41
3 28 33 41
3 29 30 35
3 31 32 36
3 32 36 40
3 34 41 35
3 41 45 35
3 35 37 45
3 36 39 40
3 37 42 45
3 38 43 48
3 38 39 48
3 39 40 48
3 40 48 49
3 40 49 44
3 45 54 46
3 46 60 54
3 46 55 60
3 47 51 52
3 48 56 53
3 48 53 49
3 49 53 57
3 49 57 50
3 50 57 58
3 50 58 54
3 50 45 54
3 51 59 61
3 51 52 59
3 53 59 57
3 59 61 57
3 42 46 45

CELL_TYPES 73
5
5
5
5
5
5
5
5
5
5
5
5
5
5
5
5
5
5
5
5
5
5
5
5
5
5
5
5
5
5
5
5
5
5
5
5
5
5
5
5
5
5
5
5
5
5
5
5
5
5
5
5
5
5
5
5
5
5
5
5
5
5
5
5
5
5
5
5
5
5
5
5
5

POINT_DATA 62
VECTORS velocity float
0 0 0
0 0 0
1 0 0
2 0 0
0 0 0
0 1 0
0 -1 0
1 1 0
0 2 0
0 -2 0
1 -2 0
0 1 0
1 1 0
2 -1 0
0 -1 0
-1 1 0
1 -1 0
0 0 0
1 1 0
-1 1 0
0 0 0
1 -2 0
2 1 0
0 0 0
2 0 0
1 0 0
-3 0 0
-3 1 0
3 1 0
3 -1 0
3 2 0
2 3 0
1 3 0
-1 3 0
1 -3 0
2 1 0
1 1 0
-1 1 0
1 -2 0
-1 0 0
0 0 0
1 1 0
-2 1 0
1 -3 0
0 0 0
-3 2 0
3 -1 0
2 3 0
2 1 0
-2 -3 1
0 0 0
-1 1 0
1 -1 0
-1 -1 0
0 0 0
0 0 0
-1 0 0
-2 1 0
1 1 0
-1 1 0
0 0 0
-2 1 0
